                         Program Version 5.0.1 -  RELEASE  -
|  1>
|  2> ! b3lyp def2-svp engrad
|  3> * xyzfile 0 1 H2O.xyz
|  4>
|  5>
|  6>
|  7>                          ****END OF INPUT****

CARTESIAN COORDINATES (ANGSTROEM)
---------------------------------
  O      0.000000    0.000000   -0.735786
  H      1.441832    0.000000    0.367893
  H     -1.441832    0.000000    0.367893

 Total Charge           Charge          ....    0
 Multiplicity           Mult            ....    1
 Number of Electrons    NEL             ....   10
 Basis Dimension        Dim             ....   24

ORBITAL ENERGIES
----------------

  NO   OCC          E(Eh)            E(eV)
   0   2.0000     -19.200006      -522.4587
   1   2.0000      -0.857636       -23.3375
   2   2.0000      -0.348319        -9.4783
   3   2.0000      -0.326179        -8.8758
   4   2.0000      -0.285057        -7.7568
   5   0.0000      -0.151667        -4.1271
   6   0.0000      -0.123164        -3.3515
   7   0.0000       0.418824        11.3968
   8   0.0000       0.468862        12.7584
   9   0.0000       0.853278        23.2189

MULLIKEN ATOMIC CHARGES
-----------------------
   0 O :   -0.305240
   1 H :    0.152620
   2 H :    0.152620
Sum of atomic charges:   -0.0000000

LOEWDIN ATOMIC CHARGES
----------------------
   0 O :   -0.289606
   1 H :    0.144803
   2 H :    0.144803

  Mayer bond orders larger than 0.100000
B(  0-O ,  1-H ) :   0.9756 B(  0-O ,  2-H ) :   0.9756

FINAL SINGLE POINT ENERGY       -76.017277463195

DIPOLE MOMENT
-------------
                                X             Y             Z
Electronic contribution:     -0.00000       0.00000      -1.14097
Nuclear contribution   :      0.00000       0.00000       1.83732
                        -----------------------------------------
Total Dipole Moment    :     -0.00000       0.00000       0.69635
                        -----------------------------------------
Magnitude (a.u.)       :      0.69635
Magnitude (Debye)      :      1.76997

Rotational constants in cm-1:     7.729696     4.022327     2.645618
Rotational constants in MHz : 231730.452578 120586.319531 79313.630834

                             ****ORCA TERMINATED NORMALLY****
TOTAL RUN TIME: 0 days 0 hours 0 minutes 3 seconds 620 msec
